<?xml version="1.0"?>
<VTKFile type="UnstructuredGrid"  version="0.1"  >
<UnstructuredGrid>
<Piece  NumberOfPoints="10201" NumberOfCells="20000">
<Points>
<DataArray  type="Float64"  NumberOfComponents="3"  format="ascii">0 0 0  0.01 0 0  0.02 0 0  0.03 0 0  0.04 0 0  0.05 0 0  0.06 0 0  0.07000000000000001 0 0  0.08 0 0  0.09 0 0  0.1 0 0  0.11 0 0  0.12 0 0  0.13 0 0  0.14 0 0  0.15 0 0  0.16 0 0  0.17 0 0  0.18 0 0  0.19 0 0  0.2 0 0  0.21 0 0  0.22 0 0  0.23 0 0  0.24 0 0  0.25 0 0  0.26 0 0  0.27 0 0  0.28 0 0  0.29 0 0  0.3 0 0  0.31 0 0  0.32 0 0  0.33 0 0  0.34 0 0  0.35 0 0  0.36 0 0  0.37 0 0  0.38 0 0  0.39 0 0  0.4 0 0  0.41 0 0  0.42 0 0  0.43 0 0  0.44 0 0  0.45 0 0  0.46 0 0  0.47 0 0  0.48 0 0  0.49 0 0  0.5 0 0  0.51 0 0  0.52 0 0  0.53 0 0  0.54 0 0  0.55 0 0  0.5600000000000001 0 0  0.57 0 0  0.58 0 0  0.59 0 0  0.6 0 0  0.61 0 0  0.62 0 0  0.63 0 0  0.64 0 0  0.65 0 0  0.66 0 0  0.67 0 0  0.68 0 0  0.6899999999999999 0 0  0.7 0 0  0.71 0 0  0.72 0 0  0.73 0 0  0.74 0 0  0.75 0 0  0.76 0 0  0.77 0 0  0.78 0 0  0.79 0 0  0.8 0 0  0.8100000000000001 0 0  0.82 0 0  0.83 0 0  0.84 0 0  0.85 0 0  0.86 0 0  0.87 0 0  0.88 0 0  0.89 0 0  0.9 0 0  0.91 0 0  0.92 0 0  0.93 0 0  0.9399999999999999 0 0  0.95 0 0  0.96 0 0  0.97 0 0  0.98 0 0  0.99 0 0  1 0 0  0 0.01 0  0.01 0.01 0  0.02 0.01 0  0.03 0.01 0  0.04 0.01 0  0.05 0.01 0  0.06 0.01 0  0.07000000000000001 0.01 0  0.08 0.01 0  0.09 0.01 0  0.1 0.01 0  0.11 0.01 0  0.12 0.01 0  0.13 0.01 0  0.14 0.01 0  0.15 0.01 0  0.16 0.01 0  0.17 0.01 0  0.18 0.01 0  0.19 0.01 0  0.2 0.01 0  0.21 0.01 0  0.22 0.01 0  0.23 0.01 0  0.24 0.01 0  0.25 0.01 0  0.26 0.01 0  0.27 0.01 0  0.28 0.01 0  0.29 0.01 0  0.3 0.01 0  0.31 0.01 0  0.32 0.01 0  0.33 0.01 0  0.34 0.01 0  0.35 0.01 0  0.36 0.01 0  0.37 0.01 0  0.38 0.01 0  0.39 0.01 0  0.4 0.01 0  0.41 0.01 0  0.42 0.01 0  0.43 0.01 0  0.44 0.01 0  0.45 0.01 0  0.46 0.01 0  0.47 0.01 0  0.48 0.01 0  0.49 0.01 0  0.5 0.01 0  0.51 0.01 0  0.52 0.01 0  0.53 0.01 0  0.54 0.01 0  0.55 0.01 0  0.5600000000000001 0.01 0  0.57 0.01 0  0.58 0.01 0  0.59 0.01 0  0.6 0.01 0  0.61 0.01 0  0.62 0.01 0  0.63 0.01 0  0.64 0.01 0  0.65 0.01 0  0.66 0.01 0  0.67 0.01 0  0.68 0.01 0  0.6899999999999999 0.01 0  0.7 0.01 0  0.71 0.01 0  0.72 0.01 0  0.73 0.01 0  0.74 0.01 0  0.75 0.01 0  0.76 0.01 0  0.77 0.01 0  0.78 0.01 0  0.79 0.01 0  0.8 0.01 0  0.8100000000000001 0.01 0  0.82 0.01 0  0.83 0.01 0  0.84 0.01 0  0.85 0.01 0  0.86 0.01 0  0.87 0.01 0  0.88 0.01 0  0.89 0.01 0  0.9 0.01 0  0.91 0.01 0  0.92 0.01 0  0.93 0.01 0  0.9399999999999999 0.01 0  0.95 0.01 0  0.96 0.01 0  0.97 0.01 0  0.98 0.01 0  0.99 0.01 0  1 0.01 0  0 0.02 0  0.01 0.02 0  0.02 0.02 0  0.03 0.02 0  0.04 0.02 0  0.05 0.02 0  0.06 0.02 0  0.07000000000000001 0.02 0  0.08 0.02 0  0.09 0.02 0  0.1 0.02 0  0.11 0.02 0  0.12 0.02 0  0.13 0.02 0  0.14 0.02 0  0.15 0.02 0  0.16 0.02 0  0.17 0.02 0  0.18 0.02 0  0.19 0.02 0  0.2 0.02 0  0.21 0.02 0  0.22 0.02 0  0.23 0.02 0  0.24 0.02 0  0.25 0.02 0  0.26 0.02 0  0.27 0.02 0  0.28 0.02 0  0.29 0.02 0  0.3 0.02 0  0.31 0.02 0  0.32 0.02 0  0.33 0.02 0  0.34 0.02 0  0.35 0.02 0  0.36 0.02 0  0.37 0.02 0  0.38 0.02 0  0.39 0.02 0  0.4 0.02 0  0.41 0.02 0  0.42 0.02 0  0.43 0.02 0  0.44 0.02 0  0.45 0.02 0  0.46 0.02 0  0.47 0.02 0  0.48 0.02 0  0.49 0.02 0  0.5 0.02 0  0.51 0.02 0  0.52 0.02 0  0.53 0.02 0  0.54 0.02 0  0.55 0.02 0  0.5600000000000001 0.02 0  0.57 0.02 0  0.58 0.02 0  0.59 0.02 0  0.6 0.02 0  0.61 0.02 0  0.62 0.02 0  0.63 0.02 0  0.64 0.02 0  0.65 0.02 0  0.66 0.02 0  0.67 0.02 0  0.68 0.02 0  0.6899999999999999 0.02 0  0.7 0.02 0  0.71 0.02 0  0.72 0.02 0  0.73 0.02 0  0.74 0.02 0  0.75 0.02 0  0.76 0.02 0  0.77 0.02 0  0.78 0.02 0  0.79 0.02 0  0.8 0.02 0  0.8100000000000001 0.02 0  0.82 0.02 0  0.83 0.02 0  0.84 0.02 0  0.85 0.02 0  0.86 0.02 0  0.87 0.02 0  0.88 0.02 0  0.89 0.02 0  0.9 0.02 0  0.91 0.02 0  0.92 0.02 0  0.93 0.02 0  0.9399999999999999 0.02 0  0.95 0.02 0  0.96 0.02 0  0.97 0.02 0  0.98 0.02 0  0.99 0.02 0  1 0.02 0  0 0.03 0  0.01 0.03 0  0.02 0.03 0  0.03 0.03 0  0.04 0.03 0  0.05 0.03 0  0.06 0.03 0  0.07000000000000001 0.03 0  0.08 0.03 0  0.09 0.03 0  0.1 0.03 0  0.11 0.03 0  0.12 0.03 0  0.13 0.03 0  0.14 0.03 0  0.15 0.03 0  0.16 0.03 0  0.17 0.03 0  0.18 0.03 0  0.19 0.03 0  0.2 0.03 0  0.21 0.03 0  0.22 0.03 0  0.23 0.03 0  0.24 0.03 0  0.25 0.03 0  0.26 0.03 0  0.27 0.03 0  0.28 0.03 0  0.29 0.03 0  0.3 0.03 0  0.31 0.03 0  0.32 0.03 0  0.33 0.03 0  0.34 0.03 0  0.35 0.03 0  0.36 0.03 0  0.37 0.03 0  0.38 0.03 0  0.39 0.03 0  0.4 0.03 0  0.41 0.03 0  0.42 0.03 0  0.43 0.03 0  0.44 0.03 0  0.45 0.03 0  0.46 0.03 0  0.47 0.03 0  0.48 0.03 0  0.49 0.03 0  0.5 0.03 0  0.51 0.03 0  0.52 0.03 0  0.53 0.03 0  0.54 0.03 0  0.55 0.03 0  0.5600000000000001 0.03 0  0.57 0.03 0  0.58 0.03 0  0.59 0.03 0  0.6 0.03 0  0.61 0.03 0  0.62 0.03 0  0.63 0.03 0  0.64 0.03 0  0.65 0.03 0  0.66 0.03 0  0.67 0.03 0  0.68 0.03 0  0.6899999999999999 0.03 0  0.7 0.03 0  0.71 0.03 0  0.72 0.03 0  0.73 0.03 0  0.74 0.03 0  0.75 0.03 0  0.76 0.03 0  0.77 0.03 0  0.78 0.03 0  0.79 0.03 0  0.8 0.03 0  0.8100000000000001 0.03 0  0.82 0.03 0  0.83 0.03 0  0.84 0.03 0  0.85 0.03 0  0.86 0.03 0  0.87 0.03 0  0.88 0.03 0  0.89 0.03 0  0.9 0.03 0  0.91 0.03 0  0.92 0.03 0  0.93 0.03 0  0.9399999999999999 0.03 0  0.95 0.03 0  0.96 0.03 0  0.97 0.03 0  0.98 0.03 0  0.99 0.03 0  1 0.03 0  0 0.04 0  0.01 0.04 0  0.02 0.04 0  0.03 0.04 0  0.04 0.04 0  0.05 0.04 0  0.06 0.04 0  0.07000000000000001 0.04 0  0.08 0.04 0  0.09 0.04 0  0.1 0.04 0  0.11 0.04 0  0.12 0.04 0  0.13 0.04 0  0.14 0.04 0  0.15 0.04 0  0.16 0.04 0  0.17 0.04 0  0.18 0.04 0  0.19 0.04 0  0.2 0.04 0  0.21 0.04 0  0.22 0.04 0  0.23 0.04 0  0.24 0.04 0  0.25 0.04 0  0.26 0.04 0  0.27 0.04 0  0.28 0.04 0  0.29 0.04 0  0.3 0.04 0  0.31 0.04 0  0.32 0.04 0  0.33 0.04 0  0.34 0.04 0  0.35 0.04 0  0.36 0.04 0  0.37 0.04 0  0.38 0.04 0  0.39 0.04 0  0.4 0.04 0  0.41 0.04 0  0.42 0.04 0  0.43 0.04 0  0.44 0.04 0  0.45 0.04 0  0.46 0.04 0  0.47 0.04 0  0.48 0.04 0  0.49 0.04 0  0.5 0.04 0  0.51 0.04 0  0.52 0.04 0  0.53 0.04 0  0.54 0.04 0  0.55 0.04 0  0.5600000000000001 0.04 0  0.57 0.04 0  0.58 0.04 0  0.59 0.04 0  0.6 0.04 0  0.61 0.04 0  0.62 0.04 0  0.63 0.04 0  0.64 0.04 0  0.65 0.04 0  0.66 0.04 0  0.67 0.04 0  0.68 0.04 0  0.6899999999999999 0.04 0  0.7 0.04 0  0.71 0.04 0  0.72 0.04 0  0.73 0.04 0  0.74 0.04 0  0.75 0.04 0  0.76 0.04 0  0.77 0.04 0  0.78 0.04 0  0.79 0.04 0  0.8 0.04 0  0.8100000000000001 0.04 0  0.82 0.04 0  0.83 0.04 0  0.84 0.04 0  0.85 0.04 0  0.86 0.04 0  0.87 0.04 0  0.88 0.04 0  0.89 0.04 0  0.9 0.04 0  0.91 0.04 0  0.92 0.04 0  0.93 0.04 0  0.9399999999999999 0.04 0  0.95 0.04 0  0.96 0.04 0  0.97 0.04 0  0.98 0.04 0  0.99 0.04 0  1 0.04 0  0 0.05 0  0.01 0.05 0  0.02 0.05 0  0.03 0.05 0  0.04 0.05 0  0.05 0.05 0  0.06 0.05 0  0.07000000000000001 0.05 0  0.08 0.05 0  0.09 0.05 0  0.1 0.05 0  0.11 0.05 0  0.12 0.05 0  0.13 0.05 0  0.14 0.05 0  0.15 0.05 0  0.16 0.05 0  0.17 0.05 0  0.18 0.05 0  0.19 0.05 0  0.2 0.05 0  0.21 0.05 0  0.22 0.05 0  0.23 0.05 0  0.24 0.05 0  0.25 0.05 0  0.26 0.05 0  0.27 0.05 0  0.28 0.05 0  0.29 0.05 0  0.3 0.05 0  0.31 0.05 0  0.32 0.05 0  0.33 0.05 0  0.34 0.05 0  0.35 0.05 0  0.36 0.05 0  0.37 0.05 0  0.38 0.05 0  0.39 0.05 0  0.4 0.05 0  0.41 0.05 0  0.42 0.05 0  0.43 0.05 0  0.44 0.05 0  0.45 0.05 0  0.46 0.05 0  0.47 0.05 0  0.48 0.05 0  0.49 0.05 0  0.5 0.05 0  0.51 0.05 0  0.52 0.05 0  0.53 0.05 0  0.54 0.05 0  0.55 0.05 0  0.5600000000000001 0.05 0  0.57 0.05 0  0.58 0.05 0  0.59 0.05 0  0.6 0.05 0  0.61 0.05 0  0.62 0.05 0  0.63 0.05 0  0.64 0.05 0  0.65 0.05 0  0.66 0.05 0  0.67 0.05 0  0.68 0.05 0  0.6899999999999999 0.05 0  0.7 0.05 0  0.71 0.05 0  0.72 0.05 0  0.73 0.05 0  0.74 0.05 0  0.75 0.05 0  0.76 0.05 0  0.77 0.05 0  0.78 0.05 0  0.79 0.05 0  0.8 0.05 0  0.8100000000000001 0.05 0  0.82 0.05 0  0.83 0.05 0  0.84 0.05 0  0.85 0.05 0  0.86 0.05 0  0.87 0.05 0  0.88 0.05 0  0.89 0.05 0  0.9 0.05 0  0.91 0.05 0  0.92 0.05 0  0.93 0.05 0  0.9399999999999999 0.05 0  0.95 0.05 0  0.96 0.05 0  0.97 0.05 0  0.98 0.05 0  0.99 0.05 0  1 0.05 0  0 0.06 0  0.01 0.06 0  0.02 0.06 0  0.03 0.06 0  0.04 0.06 0  0.05 0.06 0  0.06 0.06 0  0.07000000000000001 0.06 0  0.08 0.06 0  0.09 0.06 0  0.1 0.06 0  0.11 0.06 0  0.12 0.06 0  0.13 0.06 0  0.14 0.06 0  0.15 0.06 0  0.16 0.06 0  0.17 0.06 0  0.18 0.06 0  0.19 0.06 0  0.2 0.06 0  0.21 0.06 0  0.22 0.06 0  0.23 0.06 0  0.24 0.06 0  0.25 0.06 0  0.26 0.06 0  0.27 0.06 0  0.28 0.06 0  0.29 0.06 0  0.3 0.06 0  0.31 0.06 0  0.32 0.06 0  0.33 0.06 0  0.34 0.06 0  0.35 0.06 0  0.36 0.06 0  0.37 0.06 0  0.38 0.06 0  0.39 0.06 0  0.4 0.06 0  0.41 0.06 0  0.42 0.06 0  0.43 0.06 0  0.44 0.06 0  0.45 0.06 0  0.46 0.06 0  0.47 0.06 0  0.48 0.06 0  0.49 0.06 0  0.5 0.06 0  0.51 0.06 0  0.52 0.06 0  0.53 0.06 0  0.54 0.06 0  0.55 0.06 0  0.5600000000000001 0.06 0  0.57 0.06 0  0.58 0.06 0  0.59 0.06 0  0.6 0.06 0  0.61 0.06 0  0.62 0.06 0  0.63 0.06 0  0.64 0.06 0  0.65 0.06 0  0.66 0.06 0  0.67 0.06 0  0.68 0.06 0  0.6899999999999999 0.06 0  0.7 0.06 0  0.71 0.06 0  0.72 0.06 0  0.73 0.06 0  0.74 0.06 0  0.75 0.06 0  0.76 0.06 0  0.77 0.06 0  0.78 0.06 0  0.79 0.06 0  0.8 0.06 0  0.8100000000000001 0.06 0  0.82 0.06 0  0.83 0.06 0  0.84 0.06 0  0.85 0.06 0  0.86 0.06 0  0.87 0.06 0  0.88 0.06 0  0.89 0.06 0  0.9 0.06 0  0.91 0.06 0  0.92 0.06 0  0.93 0.06 0  0.9399999999999999 0.06 0  0.95 0.06 0  0.96 0.06 0  0.97 0.06 0  0.98 0.06 0  0.99 0.06 0  1 0.06 0  0 0.07000000000000001 0  0.01 0.07000000000000001 0  0.02 0.07000000000000001 0  0.03 0.07000000000000001 0  0.04 0.07000000000000001 0  0.05 0.07000000000000001 0  0.06 0.07000000000000001 0  0.07000000000000001 0.07000000000000001 0  0.08 0.07000000000000001 0  0.09 0.07000000000000001 0  0.1 0.07000000000000001 0  0.11 0.07000000000000001 0  0.12 0.07000000000000001 0  0.13 0.07000000000000001 0  0.14 0.07000000000000001 0  0.15 0.07000000000000001 0  0.16 0.07000000000000001 0  0.17 0.0700
[...]
<PointData  Scalars="f_8"> 
<DataArray  type="Float64"  Name="f_8"  format="ascii">0.0000000000000000e+00  0.0000000000000000e+00  0.0000000000000000e+00  0.0000000000000000e+00  0.0000000000000000e+00  0.0000000000000000e+00  0.0000000000000000e+00  0.0000000000000000e+00  0.0000000000000000e+00  0.0000000000000000e+00  0.0000000000000000e+00  0.0000000000000000e+00  0.0000000000000000e+00  0.0000000000000000e+00  0.0000000000000000e+00  0.0000000000000000e+00  0.0000000000000000e+00  0.0000000000000000e+00  0.0000000000000000e+00  0.0000000000000000e+00  0.0000000000000000e+00  0.0000000000000000e+00  0.0000000000000000e+00  0.0000000000000000e+00  0.0000000000000000e+00  0.0000000000000000e+00  0.0000000000000000e+00  0.0000000000000000e+00  0.0000000000000000e+00  0.0000000000000000e+00  0.0000000000000000e+00  0.0000000000000000e+00  0.0000000000000000e+00  0.0000000000000000e+00  0.0000000000000000e+00  0.0000000000000000e+00  0.0000000000000000e+00  0.0000000000000000e+00  0.0000000000000000e+00  0.0000000000000000e+00  0.0000000000000000e+00  0.0000000000000000e+00  0.0000000000000000e+00  0.0000000000000000e+00  0.0000000000000000e+00  0.0000000000000000e+00  0.0000000000000000e+00  0.0000000000000000e+00  0.0000000000000000e+00  0.0000000000000000e+00  0.0000000000000000e+00  0.0000000000000000e+00  0.0000000000000000e+00  0.0000000000000000e+00  0.0000000000000000e+00  0.0000000000000000e+00  0.0000000000000000e+00  0.0000000000000000e+00  0.0000000000000000e+00  0.0000000000000000e+00  0.0000000000000000e+00  0.0000000000000000e+00  0.0000000000000000e+00  0.0000000000000000e+00  0.0000000000000000e+00  0.0000000000000000e+00  0.0000000000000000e+00  0.0000000000000000e+00  0.0000000000000000e+00  0.0000000000000000e+00  0.0000000000000000e+00  0.0000000000000000e+00  0.0000000000000000e+00  0.0000000000000000e+00  0.0000000000000000e+00  0.0000000000000000e+00  0.0000000000000000e+00  0.0000000000000000e+00  0.0000000000000000e+00  0.0000000000000000e+00  0.0000000000000000e+00  0.0000000000000000e+00  0.0000000000000000e+00  0.0000000000000000e+00  0.0000000000000000e+00  0.0000000000000000e+00  0.0000000000000000e+00  0.0000000000000000e+00  0.0000000000000000e+00  0.0000000000000000e+00  0.0000000000000000e+00  0.0000000000000000e+00  0.0000000000000000e+00  0.0000000000000000e+00  0.0000000000000000e+00  0.0000000000000000e+00  0.0000000000000000e+00  0.0000000000000000e+00  0.0000000000000000e+00  0.0000000000000000e+00  0.0000000000000000e+00  0.0000000000000000e+00  9.7991668402384646e-05  1.9400667013810266e-04  2.8804368752351607e-04  3.8010210084104428e-04  4.7018157080586998e-04  5.5828188830068755e-04  6.4440291270275081e-04  7.2854454326200377e-04  8.1070670433245132e-04  8.9088933705982652e-04  9.6909239436545789e-04  1.0453158377455253e-03  1.1195596351343993e-03  1.1918237594244956e-03  1.2621081874088092e-03  1.3304128990055089e-03  1.3967378766765435e-03  1.4610831049832798e-03  1.5234485702411140e-03  1.5838342602470478e-03  1.6422401640619870e-03  1.6986662718347480e-03  1.7531125746582893e-03  1.8055790644511819e-03  1.8560657338590613e-03  1.9045725761720593e-03  1.9510995852551677e-03  1.9956467554891289e-03  2.0382140817199906e-03  2.0788015592158424e-03  2.1174091836295085e-03  2.1540369509663172e-03  2.1886848575560897e-03  2.2213529000287627e-03  2.2520410752930988e-03  2.2807493805180848e-03  2.3074778131166179e-03  2.3322263707312284e-03  2.3549950512215430e-03  2.3757838526533262e-03  2.3945927732888900e-03  2.4114218115787373e-03  2.4262709661543105e-03  2.4391402358217499e-03  2.4500296195565626e-03  2.4589391164991409e-03  2.4658687259510544e-03  2.4708184473720913e-03  2.4737882803779771e-03  2.4747782247387870e-03  2.4737882803779810e-03  2.4708184473720982e-03  2.4658687259510644e-03  2.4589391164991526e-03  2.4500296195565760e-03  2.4391402358217647e-03  2.4262709661543270e-03  2.4114218115787560e-03  2.3945927732889108e-03  2.3757838526533479e-03  2.3549950512215651e-03  2.3322263707312527e-03  2.3074778131166452e-03  2.2807493805181126e-03  2.2520410752931270e-03  2.2213529000287904e-03  2.1886848575561188e-03  2.1540369509663463e-03  2.1174091836295376e-03  2.0788015592158719e-03  2.0382140817200231e-03  1.9956467554891593e-03  1.9510995852551967e-03  1.9045725761720879e-03  1.8560657338590894e-03  1.8055790644512103e-03  1.7531125746583153e-03  1.6986662718347766e-03  1.6422401640620158e-03  1.5838342602470751e-03  1.5234485702411396e-03  1.4610831049833052e-03  1.3967378766765687e-03  1.3304128990055326e-03  1.2621081874088322e-03  1.1918237594245168e-03  1.1195596351344203e-03  1.0453158377455446e-03  9.6909239436547491e-04  8.9088933705984256e-04  8.1070670433246617e-04  7.2854454326201678e-04  6.4440291270276208e-04  5.5828188830069818e-04  4.7018157080587893e-04  3.8010210084105166e-04  2.8804368752352171e-04  1.9400667013810650e-04  9.7991668402386584e-05  0.0000000000000000e+00  0.0000000000000000e+00  1.9400667013810260e-04  3.8409799129317663e-04  5.7027264578158406e-04  7.5252981170145772e-04  9.3086896074841459e-04  1.1052897363607961e-03  1.2757918859149777e-03  1.4423752226794795e-03  1.6050396036746423e-03  1.7637849162080639e-03  1.9186110693231455e-03  2.0695179881489107e-03  2.2165056100342437e-03  2.3595738818214390e-03  2.4987227578718999e-03  2.6339521986033483e-03  2.7652621693840538e-03  2.8926526396821279e-03  3.0161235824007946e-03  3.1356749733517557e-03  3.2513067908328201e-03  3.3630190152853833e-03  3.4708116290138925e-03  3.5746846159540437e-03  3.6746379614796690e-03  3.7706716522406744e-03  3.8627856760261483e-03  3.9509800216480234e-03  4.0352546788416672e-03  4.1156096381805354e-03  4.1920448910025407e-03  4.2645604293463368e-03  4.3331562458959480e-03  4.3978323339325266e-03  4.4585886872922156e-03  4.5154253003292883e-03  4.5683421678838288e-03  4.6173392852534188e-03  4.6624166481682829e-03  4.7035742527695374e-03  4.7408120955901639e-03  4.7741301735384160e-03  4.8035284838834208e-03  4.8290070242427898e-03  4.8505657925720248e-03  4.8682047871556099e-03  4.8819240065996541e-03  4.8917234498259974e-03  4.8976031160676984e-03  4.8995630048658543e-03  4.8976031160677062e-03  4.8917234498260121e-03  4.8819240065996741e-03  4.8682047871556333e-03  4.8505657925720525e-03  4.8290070242428202e-03  4.8035284838834546e-03  4.7741301735384524e-03  4.7408120955902055e-03  4.7035742527695799e-03  4.6624166481683263e-03  4.6173392852534656e-03  4.5683421678838817e-03  4.5154253003293421e-03  4.4585886872922711e-03  4.3978323339325821e-03  4.3331562458960044e-03  4.2645604293463923e-03  4.1920448910025970e-03  4.1156096381805935e-03  4.0352546788417279e-03  3.9509800216480815e-03  3.8627856760262069e-03  3.7706716522407317e-03  3.6746379614797263e-03  3.5746846159541009e-03  3.4708116290139493e-03  3.3630190152854405e-03  3.2513067908328773e-03  3.1356749733518095e-03  3.0161235824008449e-03  2.8926526396821782e-03  2.7652621693841019e-03  2.6339521986033947e-03  2.4987227578719450e-03  2.3595738818214815e-03  2.2165056100342858e-03  2.0695179881489488e-03  1.9186110693231800e-03  1.7637849162080955e-03  1.6050396036746716e-03  1.4423752226795051e-03  1.2757918859150005e-03  1.1052897363608173e-03  9.3086896074843226e-04  7.5252981170147225e-04  5.7027264578159533e-04  3.8409799129318428e-04  1.9400667013810650e-04  0.0000000000000000e+00  0.0000000000000000e+00  2.8804368752351596e-04  5.7027264578158395e-04  8.4668575927485253e-04  1.1172822061014545e-03  1.3820613907922002e-03  1.6410228771457710e-03  1.8941663385835515e-03  2.1414915245329602e-03  2.3829982381452408e-03  2.6186863214413061e-03  2.8485556452368154e-03  3.0726061021593954e-03  3.2908376016988969e-03  3.5032500666217826e-03  3.7098434303206706e-03  3.9106176348185978e-03  4.1055726292408608e-03  4.2947083686270511e-03  4.4780248129948456e-03  4.6555219265930255e-03  4.8271996772988228e-03  4.9930580361267369e-03  5.1530969768245182e-03  5.3073164755380988e-03  5.4557165105315634e-03  5.5982970619514868e-03  5.7350581116273943e-03  5.8659996429018145e-03  5.9911216404847914e-03  6.1104240903287581e-03  6.2239069795204469e-03  6.3315702961872057e-03  6.4334140294155058e-03  6.5294381691798449e-03  6.6196427062806176e-03  6.7040276322896898e-03  6.7825929395026619e-03  6.8553386208970030e-03  6.9222646700952961e-03  6.9833710813330431e-03  7.0386578494304802e-03  7.0881249697680049e-03  7.1317724382648339e-03  7.1696002513606293e-03  7.2016084059998067e-03  7.2277968996182877e-03  7.2481657301326219e-03  7.2627148959312129e-03  7.2714443958676314e-03  7.2743542292558923e-03  7.2714443958676444e-03  7.2627148959312363e-03  7.2481657301326540e-03  7.2277968996183233e-03  7.2016084059998448e-03  7.1696002513606744e-03  7.1317724382648816e-03  7.0881249697680579e-03  7.0386578494305418e-03  6.9833710813331073e-03  6.9222646700953612e-03  6.8553386208970715e-03  6.7825929395027382e-03  6.7040276322897687e-03  6.6196427062807008e-03  6.5294381691799281e-03  6.4334140294155899e-03  6.3315702961872890e-03  6.2239069795205302e-03  6.1104240903288431e-03  5.9911216404848790e-03  5.8659996429018995e-03  5.7350581116274810e-03  5.5982970619515727e-03  5.4557165105316493e-03  5.3073164755381838e-03  5.1530969768246023e-03  4.9930580361268254e-03  4.8271996772989096e-03  4.6555219265931079e-03  4.4780248129949211e-03  4.2947083686271266e-03  4.1055726292409320e-03  3.9106176348186654e-03  3.7098434303207365e-03  3.5032500666218459e-03  3.2908376016989580e-03  3.0726061021594518e-03  2.8485556452368679e-03  2.6186863214413551e-03  2.3829982381452855e-03  2.1414915245329988e-03  1.8941663385835853e-03  1.6410228771458026e-03  1.3820613907922271e-03  1.1172822061014764e-03  8.4668575927486945e-04  5.7027264578159544e-04  2.8804368752352171e-04  0.0000000000000000e+00  0.0000000000000000e+00  3.8010210084104407e-04  7.5252981170145740e-04  1.1172822061014547e-03  1.4743585293039750e-03  1.8237581858398285e-03  2.1654807095132017e-03  2.4995257334071638e-03  2.8258929653902365e-03  3.1445821695987230e-03  3.4555931528417725e-03  3.7589257546900815e-03  4.0545798402196256e-03  4.3425552946468344e-03  4.6228520193127903e-03  4.8954699286370687e-03  5.1604089477761779e-03  5.4176690108004048e-03  5.6672500592570381e-03  5.9091520410251763e-03  6.1433749093933471e-03  6.3699186223093816e-03  6.5887831417648906e-03  6.7999684332860095e-03  7.0034744655089395e-03  7.1993012098236680e-03  7.3874486400729829e-03  7.5679167322967953e-03  7.7407054645137136e-03  7.9058148165335931e-03  8.0632447697959221e-03  8.2129953072299488e-03  8.3550664131332060e-03  8.4894580730656925e-03  8.6161702737573963e-03  8.7352030030273895e-03  8.8465562497128582e-03  8.9502300036067902e-03  9.0462242554032943e-03  9.1345389966495209e-03  9.2151742197035241e-03  9.2881299176973790e-03  9.3534060845049550e-03  9.4110027147139459e-03  9.4609198036017632e-03  9.5031573471149461e-03  9.5377153418517834e-03  9.5645937850479985e-03  9.5837926745652707e-03  9.5953120088823913e-03  9.5991517870891059e-03  9.5953120088824086e-03  9.5837926745653019e-03  9.5645937850480454e-03  9.5377153418518320e-03  9.5031573471149999e-03  9.4609198036018204e-03  9.4110027147140066e-03  9.3534060845050278e-03  9.2881299176974658e-03  9.2151742197036125e-03  9.1345389966496094e-03  9.0462242554033932e-03  8.9502300036068960e-03  8.8465562497129658e-03  8.7352030030275023e-03  8.6161702737575091e-03  8.4894580730658035e-03  8.3550664131333136e-03  8.2129953072300563e-03  8.0632447697960349e-03  7.9058148165337110e-03  7.7407054645138307e-03  7.5679167322969098e-03  7.3874486400730983e-03  7.1993012098237798e-03  7.0034744655090514e-03  6.7999684332861196e-03  6.5887831417650033e-03  6.3699186223094978e-03  6.1433749093934547e-03  5.9091520410252778e-03  5.6672500592571395e-03  5.4176690108005019e-03  5.1604089477762681e-03  4.8954699286371554e-03  4.6228520193128727e-03  4.3425552946469142e-03  4.0545798402197011e-03  3.7589257546901509e-03  3.4555931528418376e-03  3.1445821695987833e-03  2.8258929653902881e-03  2.4995257334072089e-03  2.1654807095132437e-03  1.8237581858398643e-03  1.4743585293040045e-03  1.1172822061014773e-03  7.5252981170147290e-04  3.8010210084105176e-04  0.0000000000000000e+00  0.0000000000000000e+00  4.7018157080586944e-04  9.3086896074841383e-04  1.3820613907921996e-03  1.8237581858398277e-03  2.2559587804166026e-03  2.6786627083267103e-03  3.0918695868083343e-03  3.4955791006887641e-03  3.8897909886843104e-03  4.2745050323036446e-03  4.6497210471287756e-03  5.0154388760488590e-03  5.3716583840226883e-03  5.7183794540121395e-03  6.0556019838053062e-03  6.3833258835153048e-03  6.7015510735942124e-03  7.0102774832421924e-03  7.3095050491221395e-03  7.5992337143124663e-03  7.8794634274471382e-03  8.1501941420040955e-03  8.4114258157123450e-03  8.6631584100546489e-03  8.9053918898478485e-03  9.1381262228866465e-03  9.3613613796397523e-03  9.5750973329893196e-03  9.7793340580066158e-03  9.9740715317580501e-03  1.0159309733136872e-02  1.0335048642716642e-02  1.0501288242623322e-02  1.0658028516423319e-02  1.0805269449025356e-02  1.0943011026594221e-02  1.1071253236475013e-02  1.1189996067126525e-02  1.1299239508062619e-02  1.1398983549800817e-02  1.1489228183817228e-02  1.1569973402507155e-02  1.1641219199150890e-02  1.1702965567884197e-02  1.1755212503673096e-02  1.1797960002292569e-02  1.1831208060309005e-02  1.1854956675066147e-02  1.1869205844674220e-02  1.1873955568002397e-02  1.1869205844674238e-02  1.1854956675066182e-02  1.1831208060309063e-02  1.1797960002292628e-02  1.1755212503673163e-02  1.1702965567884268e-02  1.1641219199150964e-02  1.1569973402507245e-02  1.1489228183817335e-02  1.1398983549800934e-02  1.1299239508062737e-02  1.1189996067126652e-02  1.1071253236475148e-02  1.0943011026594354e-02  1.0805269449025497e-02  1.0658028516423468e-02  1.0501288242623462e-02  1.0335048642716775e-02  1.0159309733137009e-02  9.9740715317581923e-03  9.7793340580067632e-03  9.5750973329894653e-03  9.3613613796398962e-03  9.1381262228867888e-03  8.9053918898479838e-03  8.6631584100547877e-03  8.4114258157124838e-03  8.1501941420042325e-03  7.8794634274472752e-03  7.5992337143125990e-03  7.3095050491222653e-03  7.0102774832423182e-03  6.7015510735943303e-03  6.3833258835154149e-03  6.0556019838054111e-03  5.7183794540122410e-03  5.3716583840227872e-03  5.0154388760489518e-03  4.6497210471288632e-03  4.2745050323037262e-03  3.8897909886843845e-03  3.4955791006888275e-03  3.0918695868083893e-03  2.6786627083267628e-03  2.2559587804166477e-03  1.8237581858398654e-03  1.3820613907922286e-03  9.3086896074843324e-04  4.7018157080587931e-04  0.0000000000000000e+00  0.0000000000000000e+00  5.5828188830068680e-04  1.1052897363607950e-03  1.6410228771457694e-03  2.1654807095131999e-03  2.6786627083267094e-03  3.1805684232353699e-03  3.6711974714773634e-03  4.1505495285388411e-03  4.6186243188127791e-03  5.0754216072263856e-03  5.5209411921391845e-03  5.9551828994910110e-03  6.3781465780495851e-03  6.7898320955744390e-03  7.1902393357233712e-03  7.5793681955521825e-03  7.9572185834856108e-03  8.3237904176620484e-03  8.6790836245753851e-03  9.0230981379539089e-03  9.3558338978292736e-03  9.6772908497586730e-03  9.9874689441712908e-03  1.0286368135816133e-02  1.0573988383293084e-02  1.0850329648652670e-02  1.1115391897052915e-02  1.1369175096463862e-02  1.1611679217412159e-02  1.1842904232759455e-02  1.2062850117509507e-02  1.2271516848639828e-02  1.2468904404954287e-02  1.2655012766953879e-02  1.2829841916723159e-02  1.2993391837830309e-02  1.3145662515239187e-02  1.3286653935231832e-02  1.3416366085340272e-02  1.3534798954286571e-02  1.3641952531930231e-02  1.3737826809222205e-02  1.3822421778164916e-02  1.3895737431777704e-02  1.3957773764067330e-02  1.4008530770003042e-02  1.4048008445495997e-02  1.4076206787382750e-02  1.4093125793412604e-02  1.4098765462238682e-02  1.4093125793412618e-02  1.4076206787382780e-02  1.4048008445496040e-02  1.4008530770003105e-02  1.3957773764067408e-02  1.3895737431777791e-02  1.3822421778165010e-02  1.3737826809222316e-02  1.3641952531930358e-02  1.3534798954286706e-02  1.3416366085340414e-02  1.3286653935231985e-02  1.3145662515239354e-02  1.2993391837830475e-02  1.2829841916723324e-02  1.2655012766954049e-02  1.2468904404954457e-02  1.2271516848640000e-02  1.2062850117509683e-02  1.1842904232759629e-02  1.1611679217412343e-02  1.1369175096464037e-02  1.1115391897053082e-02  1.0850329648652835e-02  1.0573988383293247e-02  1.0286368135816295e-02  9.9874689441714522e-03  9.6772908497588326e-03  9.3558338978294332e-03  9.0230981379540633e-03  8.6790836245755325e-03  8.3237904176621958e-03  7.9572185834857513e-03  7.5793681955523100e-03  7.1902393357234900e-03  6.7898320955745569e-03  6.3781465780497022e-03  5.9551828994911212e-03  5.5209411921392877e-03  5.0754216072264819e-03  4.6186243188128659e-03  4.1505495285389165e-03  3.6711974714774302e-03  3.1805684232354336e-03  2.6786627083267641e-03  2.1654807095132450e-03  1.6410228771458037e-03  1.1052897363608180e-03  5.5828188830069850e-04  0.0000000000000000e+00  0.0000000000000000e+00  6.4440291270274972e-04  1.2757918859149762e-03  1.8941663385835499e-03  2.4995257334071630e-03  3.0918695868083325e-03  3.6711974714773617e-03  4.2375090139935749e-03  4.7908038898431199e-03  5.3310818174682516e-03  5.8583425523166021e-03  6.3725858813772325e-03  6.8738116183930838e-03  7.3620195997768706e-03  7.8372096811793242e-03  8.2993817346282191e-03  8.7485356461511083e-03  9.1846713138006714e-03  9.6077886460116738e-03  1.0017887560230107e-02  1.0414967981765177e-02  1.0799029842824043e-02  1.1170073081696699e-02  1.1528097642064680e-02  1.1873103472412177e-02  1.2205090525522351e-02  1.2524058758044699e-02  1.2830008130122035e-02  1.3122938605067715e-02  1.3402850149085379e-02  1.3669742731024772e-02  1.3923616322168564e-02  1.4164470896045549e-02  1.4392306428266784e-02  1.4607122896381414e-02  1.4808920279749753e-02  1.4997698559431342e-02  1.5173457718086260e-02  1.5336197739888011e-02  1.5485918610446740e-02  1.5622620316741628e-02  1.5746302847061588e-02  1.5856966190953187e-02  1.5954610339175515e-02  1.6039235283661038e-02  1.6110841017482148e-02  1.6169427534822943e-02  1.6214994830955863e-02  1.6247542902222922e-02  1.6267071746021430e-02  1.6273581360793779e-02  1.6267071746021440e-02  1.6247542902222942e-02  1.6214994830955891e-02  1.6169427534823005e-02  1.6110841017482239e-02  1.6039235283661139e-02  1.5954610339175630e-02  1.5856966190953316e-02  1.5746302847061730e-02  1.5622620316741788e-02  1.5485918610446897e-02  1.5336197739888187e-02  1.5173457718086458e-02  1.4997698559431538e-02  1.4808920279749947e-02  1.4607122896381615e-02  1.4392306428266983e-02  1.4164470896045745e-02  1.3923616322168758e-02  1.3669742731024972e-02  1.3402850149085585e-02  1.3122938605067922e-02  1.2830008130122229e-02  1.2524058758044888e-02  1.2205090525522537e-02  1.1873103472412359e-02  1.1528097642064862e-02  1.1170073081696884e-02  1.0799029842824227e-02  1.0414967981765354e-02  1.0017887560230277e-02  9.6077886460118403e-03  9.1846713138008292e-03  8.7485356461512558e-03  8.2993817346283527e-03  7.8372096811794613e-03  7.3620195997770059e-03  6.8738116183932104e-03  6.3725858813773531e-03  5.8583425523167122e-03  5.3310818174683514e-03  4.7908038898432084e-03  4.2375090139936530e-03  3.6711974714774371e-03  3.0918695868083967e-03  2.4995257334072141e-03  1.8941663385835896e-03  1.2757918859150027e-03  6.4440291270276306e-04  0.0000000000000000e+00  0.0000000000000000e+00  7.2854454326200257e-04  1.4423752226794772e-03  2.1414915245329580e-03  2.8258929653902343e-03  3.4955791006887615e-03  4.1505495285388367e-03  4.7908038898431191e-03  5.4163418660384795e-03  6.0271631755671705e-03  6.6232675698612038e-03  7.2046548293267301e-03  7.7713247595938822e-03  8.3232771881521575e-03  8.8605119614044332e-03  9.3830289421257089e-03  9.8908280072900253e-03  1.0383909046220953e-02  1.0862271959020531e-02  1.1325916655234854e-02  1.1774843052719312e-02  1.2209051076671678e-0