<?xml version="1.0"?>
<VTKFile type="UnstructuredGrid"  version="0.1"  >
<UnstructuredGrid>
<Piece  NumberOfPoints="441" NumberOfCells="800">
<Points>
<DataArray  type="Float64"  NumberOfComponents="3"  format="ascii">0 0 0  0.05 0 0  0.1 0 0  0.15 0 0  0.2 0 0  0.25 0 0  0.3 0 0  0.35 0 0  0.4 0 0  0.45 0 0  0.5 0 0  0.55 0 0  0.6 0 0  0.65 0 0  0.7 0 0  0.75 0 0  0.8 0 0  0.85 0 0  0.9 0 0  0.95 0 0  1 0 0  0 0.05 0  0.05 0.05 0  0.1 0.05 0  0.15 0.05 0  0.2 0.05 0  0.25 0.05 0  0.3 0.05 0  0.35 0.05 0  0.4 0.05 0  0.45 0.05 0  0.5 0.05 0  0.55 0.05 0  0.6 0.05 0  0.65 0.05 0  0.7 0.05 0  0.75 0.05 0  0.8 0.05 0  0.85 0.05 0  0.9 0.05 0  0.95 0.05 0  1 0.05 0  0 0.1 0  0.05 0.1 0  0.1 0.1 0  0.15 0.1 0  0.2 0.1 0  0.25 0.1 0  0.3 0.1 0  0.35 0.1 0  0.4 0.1 0  0.45 0.1 0  0.5 0.1 0  0.55 0.1 0  0.6 0.1 0  0.65 0.1 0  0.7 0.1 0  0.75 0.1 0  0.8 0.1 0  0.85 0.1 0  0.9 0.1 0  0.95 0.1 0  1 0.1 0  0 0.15 0  0.05 0.15 0  0.1 0.15 0  0.15 0.15 0  0.2 0.15 0  0.25 0.15 0  0.3 0.15 0  0.35 0.15 0  0.4 0.15 0  0.45 0.15 0  0.5 0.15 0  0.55 0.15 0  0.6 0.15 0  0.65 0.15 0  0.7 0.15 0  0.75 0.15 0  0.8 0.15 0  0.85 0.15 0  0.9 0.15 0  0.95 0.15 0  1 0.15 0  0 0.2 0  0.05 0.2 0  0.1 0.2 0  0.15 0.2 0  0.2 0.2 0  0.25 0.2 0  0.3 0.2 0  0.35 0.2 0  0.4 0.2 0  0.45 0.2 0  0.5 0.2 0  0.55 0.2 0  0.6 0.2 0  0.65 0.2 0  0.7 0.2 0  0.75 0.2 0  0.8 0.2 0  0.85 0.2 0  0.9 0.2 0  0.95 0.2 0  1 0.2 0  0 0.25 0  0.05 0.25 0  0.1 0.25 0  0.15 0.25 0  0.2 0.25 0  0.25 0.25 0  0.3 0.25 0  0.35 0.25 0  0.4 0.25 0  0.45 0.25 0  0.5 0.25 0  0.55 0.25 0  0.6 0.25 0  0.65 0.25 0  0.7 0.25 0  0.75 0.25 0  0.8 0.25 0  0.85 0.25 0  0.9 0.25 0  0.95 0.25 0  1 0.25 0  0 0.3 0  0.05 0.3 0  0.1 0.3 0  0.15 0.3 0  0.2 0.3 0  0.25 0.3 0  0.3 0.3 0  0.35 0.3 0  0.4 0.3 0  0.45 0.3 0  0.5 0.3 0  0.55 0.3 0  0.6 0.3 0  0.65 0.3 0  0.7 0.3 0  0.75 0.3 0  0.8 0.3 0  0.85 0.3 0  0.9 0.3 0  0.95 0.3 0  1 0.3 0  0 0.35 0  0.05 0.35 0  0.1 0.35 0  0.15 0.35 0  0.2 0.35 0  0.25 0.35 0  0.3 0.35 0  0.35 0.35 0  0.4 0.35 0  0.45 0.35 0  0.5 0.35 0  0.55 0.35 0  0.6 0.35 0  0.65 0.35 0  0.7 0.35 0  0.75 0.35 0  0.8 0.35 0  0.85 0.35 0  0.9 0.35 0  0.95 0.35 0  1 0.35 0  0 0.4 0  0.05 0.4 0  0.1 0.4 0  0.15 0.4 0  0.2 0.4 0  0.25 0.4 0  0.3 0.4 0  0.35 0.4 0  0.4 0.4 0  0.45 0.4 0  0.5 0.4 0  0.55 0.4 0  0.6 0.4 0  0.65 0.4 0  0.7 0.4 0  0.75 0.4 0  0.8 0.4 0  0.85 0.4 0  0.9 0.4 0  0.95 0.4 0  1 0.4 0  0 0.45 0  0.05 0.45 0  0.1 0.45 0  0.15 0.45 0  0.2 0.45 0  0.25 0.45 0  0.3 0.45 0  0.35 0.45 0  0.4 0.45 0  0.45 0.45 0  0.5 0.45 0  0.55 0.45 0  0.6 0.45 0  0.65 0.45 0  0.7 0.45 0  0.75 0.45 0  0.8 0.45 0  0.85 0.45 0  0.9 0.45 0  0.95 0.45 0  1 0.45 0  0 0.5 0  0.05 0.5 0  0.1 0.5 0  0.15 0.5 0  0.2 0.5 0  0.25 0.5 0  0.3 0.5 0  0.35 0.5 0  0.4 0.5 0  0.45 0.5 0  0.5 0.5 0  0.55 0.5 0  0.6 0.5 0  0.65 0.5 0  0.7 0.5 0  0.75 0.5 0  0.8 0.5 0  0.85 0.5 0  0.9 0.5 0  0.95 0.5 0  1 0.5 0  0 0.55 0  0.05 0.55 0  0.1 0.55 0  0.15 0.55 0  0.2 0.55 0  0.25 0.55 0  0.3 0.55 0  0.35 0.55 0  0.4 0.55 0  0.45 0.55 0  0.5 0.55 0  0.55 0.55 0  0.6 0.55 0  0.65 0.55 0  0.7 0.55 0  0.75 0.55 0  0.8 0.55 0  0.85 0.55 0  0.9 0.55 0  0.95 0.55 0  1 0.55 0  0 0.6 0  0.05 0.6 0  0.1 0.6 0  0.15 0.6 0  0.2 0.6 0  0.25 0.6 0  0.3 0.6 0  0.35 0.6 0  0.4 0.6 0  0.45 0.6 0  0.5 0.6 0  0.55 0.6 0  0.6 0.6 0  0.65 0.6 0  0.7 0.6 0  0.75 0.6 0  0.8 0.6 0  0.85 0.6 0  0.9 0.6 0  0.95 0.6 0  1 0.6 0  0 0.65 0  0.05 0.65 0  0.1 0.65 0  0.15 0.65 0  0.2 0.65 0  0.25 0.65 0  0.3 0.65 0  0.35 0.65 0  0.4 0.65 0  0.45 0.65 0  0.5 0.65 0  0.55 0.65 0  0.6 0.65 0  0.65 0.65 0  0.7 0.65 0  0.75 0.65 0  0.8 0.65 0  0.85 0.65 0  0.9 0.65 0  0.95 0.65 0  1 0.65 0  0 0.7 0  0.05 0.7 0  0.1 0.7 0  0.15 0.7 0  0.2 0.7 0  0.25 0.7 0  0.3 0.7 0  0.35 0.7 0  0.4 0.7 0  0.45 0.7 0  0.5 0.7 0  0.55 0.7 0  0.6 0.7 0  0.65 0.7 0  0.7 0.7 0  0.75 0.7 0  0.8 0.7 0  0.85 0.7 0  0.9 0.7 0  0.95 0.7 0  1 0.7 0  0 0.75 0  0.05 0.75 0  0.1 0.75 0  0.15 0.75 0  0.2 0.75 0  0.25 0.75 0  0.3 0.75 0  0.35 0.75 0  0.4 0.75 0  0.45 0.75 0  0.5 0.75 0  0.55 0.75 0  0.6 0.75 0  0.65 0.75 0  0.7 0.75 0  0.75 0.75 0  0.8 0.75 0  0.85 0.75 0  0.9 0.75 0  0.95 0.75 0  1 0.75 0  0 0.8 0  0.05 0.8 0  0.1 0.8 0  0.15 0.8 0  0.2 0.8 0  0.25 0.8 0  0.3 0.8 0  0.35 0.8 0  0.4 0.8 0  0.45 0.8 0  0.5 0.8 0  0.55 0.8 0  0.6 0.8 0  0.65 0.8 0  0.7 0.8 0  0.75 0.8 0  0.8 0.8 0  0.85 0.8 0  0.9 0.8 0  0.95 0.8 0  1 0.8 0  0 0.85 0  0.05 0.85 0  0.1 0.85 0  0.15 0.85 0  0.2 0.85 0  0.25 0.85 0  0.3 0.85 0  0.35 0.85 0  0.4 0.85 0  0.45 0.85 0  0.5 0.85 0  0.55 0.85 0  0.6 0.85 0  0.65 0.85 0  0.7 0.85 0  0.75 0.85 0  0.8 0.85 0  0.85 0.85 0  0.9 0.85 0  0.95 0.85 0  1 0.85 0  0 0.9 0  0.05 0.9 0  0.1 0.9 0  0.15 0.9 0  0.2 0.9 0  0.25 0.9 0  0.3 0.9 0  0.35 0.9 0  0.4 0.9 0  0.45 0.9 0  0.5 0.9 0  0.55 0.9 0  0.6 0.9 0  0.65 0.9 0  0.7 0.9 0  0.75 0.9 0  0.8 0.9 0  0.85 0.9 0  0.9 0.9 0  0.95 0.9 0  1 0.9 0  0 0.95 0  0.05 0.95 0  0.1 0.95 0  0.15 0.95 0  0.2 0.95 0  0.25 0.95 0  0.3 0.95 0  0.35 0.95 0  0.4 0.95 0  0.45 0.95 0  0.5 0.95 0  0.55 0.95 0  0.6 0.95 0  0.65 0.95 0  0.7 0.95 0  0.75 0.95 0  0.8 0.95 0  0.85 0.95 0  0.9 0.95 0  0.95 0.95 0  1 0.95 0  0 1 0  0.05 1 0  0.1 1 0  0.15 1 0  0.2 1 0  0.25 1 0  0.3 1 0  0.35 1 0  0.4 1 0  0.45 1 0  0.5 1 0  0.55 1 0  0.6 1 0  0.65 1 0  0.7 1 0  0.75 1 0  0.8 1 0  0.85 1 0  0.9 1 0  0.95 1 0  1 1 0  </DataArray>
</Points>
<Cells>
[...]
<PointData  Scalars="f_8"> 
<DataArray  type="Float64"  Name="f_8"  format="ascii">0.0000000000000000e+00  0.0000000000000000e+00  0.0000000000000000e+00  0.0000000000000000e+00  0.0000000000000000e+00  0.0000000000000000e+00  0.0000000000000000e+00  0.0000000000000000e+00  0.0000000000000000e+00  0.0000000000000000e+00  0.0000000000000000e+00  0.0000000000000000e+00  0.0000000000000000e+00  0.0000000000000000e+00  0.0000000000000000e+00  0.0000000000000000e+00  0.0000000000000000e+00  0.0000000000000000e+00  0.0000000000000000e+00  0.0000000000000000e+00  0.0000000000000000e+00  0.0000000000000000e+00  8.7055525296918287e-03  1.7112901934383654e-02  2.4998662076095197e-02  3.2174940165885631e-02  3.8486843247322336e-02  4.3809206207412583e-02  4.8043624981480161e-02  5.1116040689325945e-02  5.2974904238808324e-02  5.3589900741203039e-02  5.2951209301635035e-02  5.1069283626474969e-02  4.7975153590941969e-02  4.3721265979353732e-02  3.8382905979807654e-02  3.2060275644087886e-02  2.4881367073674110e-02  1.7005901744946195e-02  8.6309586849731106e-03  0.0000000000000000e+00  0.0000000000000000e+00  1.7112901934383657e-02  3.3655413965080920e-02  4.9178108287444830e-02  6.3307692840124968e-02  7.5737653699324420e-02  8.6220627434181116e-02  9.4562221779182123e-02  1.0061615437034861e-01  1.0428060260803768e-01  1.0549567692436879e-01  1.0424195492219551e-01  1.0054004244665619e-01  9.4451158507939226e-02  8.6078775179998623e-02  7.5571384379122350e-02  6.3126517022869796e-02  4.8996217988995679e-02  3.3494302054470931e-02  1.7005901744946220e-02  0.0000000000000000e+00  0.0000000000000000e+00  2.4998662076095197e-02  4.9178108287444830e-02  7.1875351768478216e-02  9.2541058791178271e-02  1.1072472210900265e-01  1.2606295930080527e-01  1.3827025116405189e-01  1.4713174198818194e-01  1.5249786239862492e-01  1.5428061400937221e-01  1.5245141184945529e-01  1.4704042898001501e-01  1.3813743364749359e-01  1.2589415643691249e-01  1.1052827683381322e-01  9.2329179662606661e-02  7.1665706638301185e-02  4.8996217988995658e-02  2.4881367073674138e-02  0.0000000000000000e+00  0.0000000000000000e+00  3.2174940165885631e-02  6.3307692840124968e-02  9.2541058791178257e-02  1.1916448928044052e-01  1.4259518539470276e-01  1.6236300732931874e-01  1.7809850867137159e-01  1.8952363751970225e-01  1.9644479307224122e-01  1.9874802569837308e-01  1.9639624323623836e-01  1.8942834880978821e-01  1.7796029274844083e-01  1.6218807758634443e-01  1.4239281393994480e-01  1.1894798898877569e-01  9.2329179662606647e-02  6.3126517022869783e-02  3.2060275644087914e-02  0.0000000000000000e+00  0.0000000000000000e+00  3.8486843247322329e-02  7.5737653699324434e-02  1.1072472210900262e-01  1.4259518539470267e-01  1.7064904369338227e-01  1.9432136553372859e-01  2.1316807617241323e-01  2.2685487093034751e-01  2.3514891750559785e-01  2.3791310872564034e-01  2.3510270742067008e-01  2.2676429485779195e-01  2.1303699845013710e-01  1.9415603680341292e-01  1.7045868318417892e-01  1.4239281393994471e-01  1.1052827683381322e-01  7.5571384379122294e-02  3.8382905979807674e-02  0.0000000000000000e+00  0.0000000000000000e+00  4.3809206207412542e-02  8.6220627434181060e-02  1.2606295930080516e-01  1.6236300732931858e-01  1.9432136553372842e-01  2.2129252243980010e-01  2.4276886163753850e-01  2.5836812335700976e-01  2.6782399104416249e-01  2.7097955511125332e-01  2.6778348494634296e-01  2.5828881225057237e-01  2.4265429647423617e-01  2.2114840882632464e-01  1.9415603680341303e-01  1.6218807758634440e-01  1.2589415643691249e-01  8.6078775179998596e-02  4.3721265979353781e-02  0.0000000000000000e+00  0.0000000000000000e+00  4.8043624981480085e-02  9.4562221779181971e-02  1.3827025116405170e-01  1.7809850867137128e-01  2.1316807617241293e-01  2.4276886163753830e-01  2.6634224541426427e-01  2.8346742606599007e-01  2.9385113903612259e-01  2.9732050031220064e-01  2.9381880250287629e-01  2.8340416230725168e-01  2.6625098720324397e-01  2.4265429647423625e-01  2.1303699845013729e-01  1.7796029274844088e-01  1.3813743364749362e-01  9.4451158507939267e-02  4.7975153590942031e-02  0.0000000000000000e+00  0.0000000000000000e+00  5.1116040689325848e-02  1.0061615437034836e-01  1.4713174198818166e-01  1.8952363751970192e-01  2.2685487093034715e-01  2.5836812335700954e-01  2.8346742606599018e-01  3.0170371728989703e-01  3.1276394080547060e-01  3.1646344209855032e-01  3.1274148952904302e-01  3.0165981810564735e-01  2.8340416230725163e-01  2.5828881225057243e-01  2.2676429485779215e-01  1.8942834880978826e-01  1.4704042898001504e-01  1.0054004244665618e-01  5.1069283626475011e-02  0.0000000000000000e+00  0.0000000000000000e+00  5.2974904238808219e-02  1.0428060260803743e-01  1.5249786239862462e-01  1.9644479307224086e-01  2.3514891750559749e-01  2.6782399104416227e-01  2.9385113903612253e-01  3.1276394080547049e-01  3.2423715229731204e-01  3.2807882733082022e-01  3.2422566624243154e-01  3.1274148952904302e-01  2.9381880250287601e-01  2.6778348494634302e-01  2.3510270742067021e-01  1.9639624323623836e-01  1.5245141184945527e-01  1.0424195492219546e-01  5.2951209301635070e-02  0.0000000000000000e+00  0.0000000000000000e+00  5.3589900741202921e-02  1.0549567692436849e-01  1.5428061400937179e-01  1.9874802569837258e-01  2.3791310872563970e-01  2.7097955511125282e-01  2.9732050031220031e-01  3.1646344209854999e-01  3.2807882733082000e-01  3.3197206951832009e-01  3.2807882733082017e-01  3.1646344209855015e-01  2.9732050031220053e-01  2.7097955511125327e-01  2.3791310872564017e-01  1.9874802569837294e-01  1.5428061400937215e-01  1.0549567692436872e-01  5.3589900741203053e-02  0.0000000000000000e+00  0.0000000000000000e+00  5.2951209301634918e-02  1.0424195492219526e-01  1.5245141184945490e-01  1.9639624323623792e-01  2.3510270742066958e-01  2.6778348494634252e-01  2.9381880250287590e-01  3.1274148952904279e-01  3.2422566624243138e-01  3.2807882733082000e-01  3.2423715229731193e-01  3.1276394080547049e-01  2.9385113903612253e-01  2.6782399104416249e-01  2.3514891750559777e-01  1.9644479307224105e-01  1.5249786239862481e-01  1.0428060260803758e-01  5.2974904238808351e-02  0.0000000000000000e+00  0.0000000000000000e+00  5.1069283626474858e-02  1.0054004244665593e-01  1.4704042898001463e-01  1.8942834880978768e-01  2.2676429485779137e-01  2.5828881225057176e-01  2.8340416230725113e-01  3.0165981810564685e-01  3.1274148952904252e-01  3.1646344209854999e-01  3.1276394080547038e-01  3.0170371728989676e-01  2.8346742606598990e-01  2.5836812335700959e-01  2.2685487093034731e-01  1.8952363751970211e-01  1.4713174198818182e-01  1.0061615437034853e-01  5.1116040689325973e-02  0.0000000000000000e+00  0.0000000000000000e+00  4.7975153590941913e-02  9.4451158507939073e-02  1.3813743364749323e-01  1.7796029274844036e-01  2.1303699845013657e-01  2.4265429647423561e-01  2.6625098720324331e-01  2.8340416230725107e-01  2.9381880250287573e-01  2.9732050031220031e-01  2.9385113903612237e-01  2.8346742606598990e-01  2.6634224541426416e-01  2.4276886163753847e-01  2.1316807617241310e-01  1.7809850867137142e-01  1.3827025116405184e-01  9.4562221779182054e-02  4.8043624981480189e-02  0.0000000000000000e+00  0.0000000000000000e+00  4.3721265979353628e-02  8.6078775179998387e-02  1.2589415643691215e-01  1.6218807758634393e-01  1.9415603680341226e-01  2.2114840882632392e-01  2.4265429647423564e-01  2.5828881225057188e-01  2.6778348494634258e-01  2.7097955511125299e-01  2.6782399104416238e-01  2.5836812335700948e-01  2.4276886163753844e-01  2.2129252243980016e-01  1.9432136553372859e-01  1.6236300732931871e-01  1.2606295930080527e-01  8.6220627434181088e-02  4.3809206207412604e-02  0.0000000000000000e+00  0.0000000000000000e+00  3.8382905979807556e-02  7.5571384379122128e-02  1.1052827683381292e-01  1.4239281393994427e-01  1.7045868318417834e-01  1.9415603680341240e-01  2.1303699845013671e-01  2.2676429485779148e-01  2.3510270742066963e-01  2.3791310872563992e-01  2.3514891750559752e-01  2.2685487093034706e-01  2.1316807617241301e-01  1.9432136553372856e-01  1.7064904369338230e-01  1.4259518539470273e-01  1.1072472210900269e-01  7.5737653699324420e-02  3.8486843247322350e-02  0.0000000000000000e+00  0.0000000000000000e+00  3.2060275644087803e-02  6.3126517022869630e-02  9.2329179662606370e-02  1.1894798898877532e-01  1.4239281393994424e-01  1.6218807758634393e-01  1.7796029274844039e-01  1.8942834880978776e-01  1.9639624323623792e-01  1.9874802569837258e-01  1.9644479307224080e-01  1.8952363751970186e-01  1.7809850867137125e-01  1.6236300732931855e-01  1.4259518539470264e-01  1.1916448928044043e-01  9.2541058791178243e-02  6.3307692840124927e-02  3.2174940165885638e-02  0.0000000000000000e+00  0.0000000000000000e+00  2.4881367073674044e-02  4.8996217988995533e-02  7.1665706638300963e-02  9.2329179662606356e-02  1.1052827683381283e-01  1.2589415643691204e-01  1.3813743364749317e-01  1.4704042898001457e-01  1.5245141184945482e-01  1.5428061400937179e-01  1.5249786239862465e-01  1.4713174198818171e-01  1.3827025116405176e-01  1.2606295930080519e-01  1.1072472210900262e-01  9.2541058791178230e-02  7.1875351768478202e-02  4.9178108287444816e-02  2.4998662076095211e-02  0.0000000000000000e+00  0.0000000000000000e+00  1.7005901744946154e-02  3.3494302054470848e-02  4.8996217988995526e-02  6.3126517022869616e-02  7.5571384379122072e-02  8.6078775179998332e-02  9.4451158507938962e-02  1.0054004244665588e-01  1.0424195492219519e-01  1.0549567692436848e-01  1.0428060260803741e-01  1.0061615437034840e-01  9.4562221779181971e-02  8.6220627434181019e-02  7.5737653699324364e-02  6.3307692840124885e-02  4.9178108287444788e-02  3.3655413965080878e-02  1.7112901934383654e-02  0.0000000000000000e+00  0.0000000000000000e+00  8.6309586849730863e-03  1.7005901744946175e-02  2.4881367073674065e-02  3.2060275644087824e-02  3.8382905979807543e-02  4.3721265979353621e-02  4.7975153590941885e-02  5.1069283626474858e-02  5.2951209301634931e-02  5.3589900741202942e-02  5.2974904238808268e-02  5.1116040689325903e-02  4.8043624981480154e-02  4.3809206207412570e-02  3.8486843247322322e-02  3.2174940165885624e-02  2.4998662076095201e-02  1.7112901934383654e-02  8.7055525296918373e-03  0.0000000000000000e+00  0.0000000000000000e+00  0.0000000000000000e+00  0.0000000000000000e+00  0.0000000000000000e+00  0.0000000000000000e+00  0.0000000000000000e+00  0.0000000000000000e+00  0.0000000000000000e+00  0.0000000000000000e+00  0.0000000000000000e+00  0.0000000000000000e+00  0.0000000000000000e+00  0.0000000000000000e+00  0.0000000000000000e+00  0.0000000000000000e+00  0.0000000000000000e+00  0.0000000000000000e+00  0.0000000000000000e+00  0.0000000000000000e+00  0.0000000000000000e+00  0.0000000000000000e+00  </DataArray> 
</PointData> 
</Piece>
</UnstructuredGrid>
</VTKFile>