<?xml version="1.0"?>
<VTKFile type="UnstructuredGrid"  version="0.1"  >
<UnstructuredGrid>
<Piece  NumberOfPoints="36" NumberOfCells="50">
<Points>
<DataArray  type="Float64"  NumberOfComponents="3"  format="ascii">0 0 0  0.2 0 0  0.4 0 0  0.6 0 0  0.8 0 0  1 0 0  0 0.2 0  0.2 0.2 0  0.4 0.2 0  0.6 0.2 0  0.8 0.2 0  1 0.2 0  0 0.4 0  0.2 0.4 0  0.4 0.4 0  0.6 0.4 0  0.8 0.4 0  1 0.4 0  0 0.6 0  0.2 0.6 0  0.4 0.6 0  0.6 0.6 0  0.8 0.6 0  1 0.6 0  0 0.8 0  0.2 0.8 0  0.4 0.8 0  0.6 0.8 0  0.8 0.8 0  1 0.8 0  0 1 0  0.2 1 0  0.4 1 0  0.6 1 0  0.8 1 0  1 1 0  </DataArray>
</Points>
<Cells>
<DataArray  type="UInt32"  Name="connectivity"  format="ascii">0 1 7  0 6 7  1 2 8  1 7 8  2 3 9  2 8 9  3 4 10  3 9 10  4 5 11  4 10 11  6 7 13  6 12 13  7 8 14  7 13 14  8 9 15  8 14 15  9 10 16  9 15 16  10 11 17  10 16 17  12 13 19  12 18 19  13 14 20  13 19 20  14 15 21  14 20 21  15 16 22  15 21 22  16 17 23  16 22 23  18 19 25  18 24 25  19 20 26  19 25 26  20 21 27  20 26 27  21 22 28  21 27 28  22 23 29  22 28 29  24 25 31  24 30 31  25 26 32  25 31 32  26 27 33  26 32 33  27 28 34  27 33 34  28 29 35  28 34 35  </DataArray>
<DataArray  type="UInt32"  Name="offsets"  format="ascii">3 6 9 12 15 18 21 24 27 30 33 36 39 42 45 48 51 54 57 60 63 66 69 72 75 78 81 84 87 90 93 96 99 102 105 108 111 114 117 120 123 126 129 132 135 138 141 144 147 150 </DataArray>
<DataArray  type="UInt8"  Name="types"  format="ascii">5 5 5 5 5 5 5 5 5 5 5 5 5 5 5 5 5 5 5 5 5 5 5 5 5 5 5 5 5 5 5 5 5 5 5 5 5 5 5 5 5 5 5 5 5 5 5 5 5 5 </DataArray>
</Cells>
<PointData  Scalars="f_12"> 
<DataArray  type="Float64"  Name="f_12"  format="ascii">1.5589115985883608e-02  6.3539439730856695e-01  1.0182405788656577e+00  1.0141373029348746e+00  6.1446989647731876e-01  2.0827083365090289e-03  2.9273547397602653e-02  5.1902836141985520e-01  8.2682618182197343e-01  8.1542005920400418e-01  4.9121322184752003e-01  -6.6732874168868072e-03  3.5940111566903063e-02  2.1914182835825741e-01  3.2554620498300629e-01  3.0363956723795776e-01  1.6734299948099821e-01  -3.0783490867539023e-02  3.0783490867538774e-02  -1.6734299948099840e-01  -3.0363956723795810e-01  -3.2554620498300624e-01  -2.1914182835825730e-01  -3.5940111566902931e-02  6.6732874168868965e-03  -4.9121322184751948e-01  -8.1542005920400396e-01  -8.2682618182197332e-01  -5.1902836141985531e-01  -2.9273547397602705e-02  -2.0827083365085540e-03  -6.1446989647732042e-01  -1.0141373029348761e+00  -1.0182405788656594e+00  -6.3539439730856762e-01  -1.5589115985883443e-02  </DataArray> 
</PointData> 
</Piece>
</UnstructuredGrid>
</VTKFile>